variableMetadata	database_identifier	chemical_formula	smiles	inchi	metabolite_identification	mass_to_charge	fragmentation	modifications	charge	retention_time	reliability	sample_mean	sample_sd	sample_CV	pool_mean	pool_sd	pool_CV	poolCV_over_sampleCV	PCA_XLOAD-p1	PCA_XLOAD-p2	gender_ttest_Male.Female_dif	gender_ttest_Male.Female_fdr	gender_ttest_Male.Female_sig	gender_OPLSDA_XLOAD-h1	gender_OPLSDA_XLOAD-o1	gender_OPLSDA_VIP_pred	gender_OPLSDA_VIP_ortho	gender_OPLSDA_COEFF	gender_tier_S
(2-methoxyethoxy)propanoic acid isomer					(2-methoxyethoxy)propanoic acid isomer	147.065655	NA	[(M-H)]-	1	4.75	4	2.13743243983351	0.76099783523919	0.356033632248262	453243.359568937	34664.1934521402	0.0764803117802057	0.214812042607469	0.0277437281048628	-0.00138877404885156	-0.154213464397451	0.282604921657774	0	-0.068158483611281	-0.0118112346050774	0.701005187605282	0.225548899007489	-0.0194922685724639	
(gamma)Glu-Leu/Ile					(gamma)Glu-Leu/Ile	259.128923	NA	[(M-H)]-	1	5.25	4	2.72415649309369	0.279224727468718	0.102499517989004	452195.939569403	22076.146424581	0.0488198687622067	0.476293642351023	0.113641503892785	0.104332442929268	0.133017405810648	0.00163031775256109	1	0.116225580355068	-0.110632477266007	1.19537188101193	1.10099713512572	0.0527279884438916	
1,3-Dimethyluric acid	CHEBI:68447	C7H8N4O3	Cn1c2[nH]c(=O)[nH]c2c(=O)n(C)c1=O	InChI=1S/C7H8N4O3/c1-10-4-3(8-6(13)9-4)5(12)11(2)7(10)14/h1-2H3,(H2,8,9,13)	1,3-Dimethyluric acid	195.050844	NA	[(M-H)]-	1	4.67	5	3.53571270305896	0.582088907840927	0.164631279950242	3958832.73057705	187429.988817876	0.0473447608357414	0.287580591307137	0.0525876002027141	-0.140960360102996	0.0344881392330469	0.732759392072027	0	0.0601987057845129	-0.147487661157395	0.619139435125037	0.99425640719602	0.00619670558443484	
1,7-Dimethyluric acid	CHEBI:68449	C7H8N4O3	Cn1c2c([nH]c1=O)[nH]c(=O)n(C)c2=O	InChI=1S/C7H8N4O3/c1-10-3-4(8-6(10)13)9-7(14)11(2)5(3)12/h1-2H3,(H,8,13)(H,9,14)	1,7-Dimethyluric acid	195.050844	NA	[(M-H)]-	1	4.96	5	4.05392310836375	0.479205113805589	0.118207746174793	13226373.1327088	683182.307044961	0.0516530344479282	0.436968270857219	0.0429247883967652	-0.17331093734836	-0.0813507559876641	0.325610033983988	0	0.00266714321133967	-0.144479694002648	0.0274313794581818	1.09864453452693	-0.0180140293236204	
1-Methyluric acid	CHEBI:68441	C6H6N4O3	Cn1c(=O)[nH]c2[nH]c(=O)[nH]c2c1=O	InChI=1S/C6H6N4O3/c1-10-4(11)2-3(9-6(10)13)8-5(12)7-2/h1H3,(H,9,13)(H2,7,8,12)	1-Methyluric acid	181.035456	NA	[(M-H)]-	1	4.07	5	4.26412924354928	0.434715269250692	0.101947019994369	19413183.3946158	474103.190035138	0.0244217128328695	0.239552983836295	0.0695739553127114	-0.171290370558449	0.026082428034095	0.719319348103393	0	0.0578759856567165	-0.187499140865829	0.595250422742858	1.30444415697959	0.00701396788596675	
1-Methylxanthine	CHEBI:68444	C6H6N4O2	Cn1c(=O)[nH]c2nc[nH]c2c1=O	InChI=1S/C6H6N4O2/c1-10-5(11)3-4(8-2-7-3)9-6(10)12/h2H,1H3,(H,7,8)(H,9,12)	1-Methylxanthine	165.040382	NA	[(M-H)]-	1	4.23	5	4.07679599476304	0.446204510308881	0.109449800991284	13323461.9802182	418602.310538585	0.0314184339746004	0.287057936058762	0.0452899968920159	-0.185185628179637	0.0123326132783168	0.864647983162193	0	0.0453675737020909	-0.164778867090178	0.466602289681324	1.25570276249853	0.00286769916247628	
2,2-Dimethylglutaric acid	CHEBI:68459	C7H12O4	CC(C)(CCC(O)=O)C(O)=O	InChI=1S/C7H12O4/c1-7(2,6(10)11)4-3-5(8)9/h3-4H2,1-2H3,(H,8,9)(H,10,11)	2,2-Dimethylglutaric acid	159.065452	NA	[(M-H)]-	1	6.04	5	2.74504016554435	0.281858608366436	0.102679229216503	449322.231875397	45799.7101108014	0.101930656579446	0.992709600152155	0.0962263774763647	0.0573883966735493	0.0335662643644135	0.495733308811259	0	0.0231991278511285	-0.0870649924580442	0.238601390610568	0.924850719310099	0.0132202675922401	
2-acetamido-4-methylphenyl acetate	CHEBI:84085	C11H13NO3	CC(=O)Nc1cc(C)ccc1OC(C)=O	InChI=1S/C11H13NO3/c1-7-4-5-11(15-9(3)14)10(6-7)12-8(2)13/h4-6H,1-3H3,(H,12,13)	2-acetamido-4-methylphenyl acetate	206.08069	NA	[(M-H)]-	1	6.75	4	2.14783844889439	0.502916855421363	0.234150224696947	142114.364197747	11332.8064465639	0.0797442715276458	0.340568844769874	0.0671481599653866	-0.0637763372050362	-0.179658126605468	0.0352692899339046	1	-0.120305528552538	-0.0882040820529034	1.2373338599183	0.64346620472869	-0.0352439901845581	
2-Aminoadipic acid	CHEBI:37024	C6H11NO4	NC(CCCC(O)=O)C(O)=O	InChI=1S/C6H11NO4/c7-4(6(10)11)2-1-3-5(8)9/h4H,1-3,7H2,(H,8,9)(H,10,11)	2-Aminoadipic acid	160.060993	NA	[(M-H)]-	1	1.05	5	2.26085737526799	0.191912889478327	0.0848850049444534	139934.119230129	10010.9718437086	0.0715406070998667	0.842794403401179	0.140260717344817	-0.00455376508724406	-0.0615791411483837	0.0406595391651593	1	-0.088217093455526	-0.146584685566277	0.907306572435956	1.10559321577024	-0.0340188305903718	
2-Hydroxybenzyl alcohol	CHEBI:16464	C7H8O2	OCc1ccccc1O	InChI=1S/C7H8O2/c8-5-6-3-1-2-4-7(6)9/h1-4,8-9H,5H2	2-Hydroxybenzyl alcohol	123.045226	NA	[(M-H)]-	1	5.58	5	2.04831595083182	0.472259400397644	0.230559841222669	135935.170959699	7020.93330709271	0.0516491299310183	0.224016158482417	0.0399215692599392	-0.133796860144442	-0.057969649914388	0.518708055000639	0	-0.0248219299047523	-0.103859696410264	0.255291795058746	0.727331152844085	-0.0120806744964683	
2-Isopropylmalic acid	CHEBI:35128	C7H12O5	C(C(=O)O)[C@](C(=O)O)(O)C(C)C	InChI=1S/C7H12O5/c1-4(2)7(12,6(10)11)3-5(8)9/h4,12H,3H2,1-2H3,(H,8,9)(H,10,11)/t7-/m0/s1	2-Isopropylmalic acid	175.060135	NA	[(M-H)]-	1	5.52	5	3.33387207149605	0.559803694371929	0.167913969812502	3824750.62195023	205053.755186856	0.0536123202412342	0.319284454420913	0.0660539765653004	-0.0350613691362527	0.17740260953598	0.0539883152352672	0	0.0922019426553591	-0.120228567934209	0.948290464871695	0.801121538011641	0.0323249258016341	
2-Methylhippuric acid	CHEBI:68455	C10H11NO3	Cc1ccccc1C(=O)NCC(O)=O	InChI=1S/C10H11NO3/c1-7-4-2-3-5-8(7)10(14)11-6-9(12)13/h2-5H,6H2,1H3,(H,11,14)(H,12,13)	2-Methylhippuric acid	192.066148	NA	[(M-H)]-	1	6.13	5	2.75966892994854	0.422914835390196	0.15324839541462	597219.794725267	21695.8157597272	0.0363280252117359	0.237053217512972	0.0739136430160451	-0.0609635379360719	-0.199747190261427	0.00295576888706595	1	-0.164854929882092	-0.0725413658965834	1.69552130456324	0.492410386128788	-0.0500715311882866	
3,3-Dimethylglutaric acid	CHEBI:68502	C7H12O4	CC(C)(CC(O)=O)CC(O)=O	InChI=1S/C7H12O4/c1-7(2,3-5(8)9)4-6(10)11/h3-4H2,1-2H3,(H,8,9)(H,10,11)	3,3-Dimethylglutaric acid	NA	NA		NA	NA	5	2.66883748995159	0.233449369438918	0.087472305945145	377720.236351895	57232.1771474943	0.151520018361355	1.73220560180928	0.115851584085292	0.0272948190547146	-0.025391831698601	0.571291736626994	0	-0.0356837205672399	-0.107742786083402	0.367004544487141	1.06194783398328	-0.0107731123536861	
3,4-Dihydroxybenzeneacetic acid	CHEBI:41941	C8H8O4	OC(=O)Cc1ccc(O)c(O)c1	InChI=1S/C8H8O4/c9-6-2-1-5(3-7(6)10)4-8(11)12/h1-3,9-10H,4H2,(H,11,12)	3,4-Dihydroxybenzeneacetic acid	NA	NA		NA	NA	5	2.62175667639269	0.501641389641764	0.191337889651903	469426.694561528	44964.7358791703	0.095786491054093	0.500614338479197	0.0850244561265682	-5.45792831437612e-05	-0.160543128616176	0.0535860812056747	0	-0.105552032238103	-0.0615733583074064	1.08559519286229	0.765246230427225	-0.032434775702286	
3,5-dihydroxybenzoic acid/3,4-dihydroxybenzoic acid	CHEBI:36062|CHEBI:39912	C7H6O4|C7H6O4	C(=O)(C1=CC(=C(C=C1)O)O)O|OC(=O)c1cc(O)cc(O)c1	InChI=1S/C7H6O4/c8-5-2-1-4(7(10)11)3-6(5)9/h1-3,8-9H,(H,10,11)|InChI=1S/C7H6O4/c8-5-1-4(7(10)11)2-6(9)3-5/h1-3,8-9H,(H,10,11)	3,5-dihydroxybenzoic acid/3,4-dihydroxybenzoic acid	153.018293	NA	[(M-H)]-	1	4.83	4	2.64528154469542	0.410087206608057	0.15502592056048	402988.062960581	23352.6940635209	0.057948848141949	0.373801025870003	0.0578384849361955	-0.0960899904650993	-0.168622161438607	0.00809810722500437	1	-0.111520829159138	-0.0927000625082114	1.14698384741733	0.653783395681773	-0.0434525797328313	
3,7-Dimethyluric acid	CHEBI:68531	C7H8N4O3	Cn1c2[nH]c(=O)n(C)c2c(=O)[nH]c1=O	InChI=1S/C7H8N4O3/c1-10-3-4(8-6(10)13)11(2)7(14)9-5(3)12/h1-2H3,(H,8,13)(H,9,12,14)	3,7-Dimethyluric acid	195.051734	NA	[(M-H)]-	1	4.3	5	2.77775211587768	0.673562734031253	0.242484824394933	810067.851594928	50924.7445171101	0.0628647889394021	0.25925246702043	0.118206622159063	0.0101465182929682	0.106998439161835	0.406020340624731	0	0.0460978787549773	-0.142786153427453	0.474113425544138	1.14209755211805	0.0156600235741427	
3-Hydroxybenzyl alcohol	CHEBI:17069	C7H8O2	OCc1cccc(O)c1	InChI=1S/C7H8O2/c8-5-6-2-1-3-7(9)4-6/h1-4,8-9H,5H2	3-Hydroxybenzyl alcohol	123.044472	NA	[(M-H)]-	1	5.26	5	2.56786863283443	0.555259276157311	0.216233521083363	442080.03940812	15935.5069850748	0.0360466557287005	0.166702440713638	0.0769194177728356	-0.000340148795246964	-0.14651396154574	0.139817916737406	0	-0.0796849212719122	-0.0575223934789388	0.819553784443109	0.749075561592479	-0.0262872507056792	
3-Hydroxyphenylacetic acid	CHEBI:17445	C8H8O3	OC(=O)Cc1cccc(O)c1	InChI=1S/C8H8O3/c9-7-3-1-2-6(4-7)5-8(10)11/h1-4,9H,5H2,(H,10,11)	3-Hydroxyphenylacetic acid	151.03922	NA	[(M-H)]-	1	6.06	5	3.29521740544455	0.379300312332614	0.115106308829855	1935414.90390444	86111.3618689664	0.0444924556978704	0.386533597942379	0.046421602397232	-0.0329580197669659	-0.0785527082015305	0.234869990993218	0	-0.0665085701224441	-0.0628448946074463	0.684035943961734	0.474517369510583	-0.0212249205686107	
3-Indole carboxylic acid glucuronide	CHEBI:68486	C15H15NO8	O[C@H]1[C@@H](OC([C@@H](O)[C@@H]1O)C(O)=O)OC(=O)c1c[nH]c2ccccc12	InChI=1S/C15H15NO8/c17-9-10(18)12(13(20)21)23-15(11(9)19)24-14(22)7-5-16-8-4-2-1-3-6(7)8/h1-5,9-12,15-19H,(H,20,21)/t9-,10-,11+,12?,15-/m0/s1	3-Indole carboxylic acid glucuronide	336.072846	NA	[(M-H)]-	1	6.2	4	3.37370186139036	0.468615135235786	0.138902355480416	3003452.43810479	234147.944239478	0.0779595978510744	0.561254685577063	0.0182021381597243	0.0135097795374972	0.088967497714628	0.269865029579576	0	0.0508885126483665	-0.0425805912521668	0.5233847566133	0.402795023227209	0.0207854915176988	
3-Methyl-2-oxovaleric acid	CHEBI:35932	C6H10O3	CCC(C)C(=O)C(O)=O	InChI=1S/C6H10O3/c1-3-4(2)5(7)6(8)9/h4H,3H2,1-2H3,(H,8,9)	3-Methyl-2-oxovaleric acid	129.054965	NA	[(M-H)]-	1	5.37	5	3.40937631828003	0.399586198190918	0.117202139302857	2652322.91930366	102132.726041957	0.0385068972177683	0.328551146308552	0.0956402100897883	0.115443916509063	0.104869360015533	0.0661148457482541	0	0.0546184123463472	-0.0573935886932425	0.561746511438185	1.14662516979285	0.0309911433203954	
3-Methylcrotonylglycine	CHEBI:68499	C7H11NO3	CC(C)=CC(=O)NCC(O)=O	InChI=1S/C7H11NO3/c1-5(2)3-6(9)8-4-7(10)11/h3H,4H2,1-2H3,(H,8,9)(H,10,11)	3-Methylcrotonylglycine	156.065767	NA	[(M-H)]-	1	5.2	5	3.5501623962481	0.351336007569713	0.0989633623354847	3105763.26991166	126415.574438399	0.0407035448139595	0.41129912983327	0.136941295778114	0.0340284393910238	-0.0936966645084216	0.0303932406059852	1	-0.126861838929271	-0.11443143233965	1.30476504884926	0.937915942824578	-0.0361177286457378	
4-Acetamidobutanoic acid isomer 2					4-Acetamidobutanoic acid isomer 2	NA	NA		NA	NA	4	3.97369577162233	0.282962627613242	0.0712089308985318	8267954.43640693	292705.558354764	0.035402415507501	0.497162575828406	0.181493882688098	0.0842763078580835	-0.00633165521026813	0.852127790467293	0	-0.0158270815684605	-0.154207407629224	0.162780415530054	1.76113320128824	-0.00324865276453051	
4-Acetamidobutanoic acid isomer 3					4-Acetamidobutanoic acid isomer 3	NA	NA		NA	NA	4	3.37636851113197	0.352488219015793	0.104398621730309	2189409.72459397	100611.128502781	0.0459535405240055	0.4401738237763	0.127322995341317	0.0140497515610621	-0.173747463865053	0.000255749950706702	1	-0.183003709109242	-0.0896613736979687	1.88218021645296	0.916545615747992	-0.0584236907934589	
4-Hydroxybenzoic acid	CHEBI:30763	C7H6O3	OC(=O)c1ccc(O)cc1	InChI=1S/C7H6O3/c8-6-3-1-5(2-4-6)7(9)10/h1-4,8H,(H,9,10)	4-Hydroxybenzoic acid	137.023583	NA	[(M-H)]-	1	5.65	5	2.3435489492885	0.440747075653389	0.188068218411738	196427.192059626	15132.1522990646	0.0770369526764458	0.409622387700769	0.0709874867112291	0.0386579814631554	-0.077048258024957	0.333433911818017	0	-0.0606268103956495	-0.0530458592826215	0.623542460799083	0.473178050658029	-0.0177512994501494	
4-Methylhippuric acid/3-Methylhippuric acid	CHEBI:68500|CHEBI:68552	C10H11NO3|C10H11NO3	Cc1cccc(c1)C(=O)NCC(O)=O|Cc1ccc(cc1)C(=O)NCC(O)=O	InChI=1S/C10H11NO3/c1-7-3-2-4-8(5-7)10(14)11-6-9(12)13/h2-5H,6H2,1H3,(H,11,14)(H,12,13)|InChI=1S/C10H11NO3/c1-7-2-4-8(5-3-7)10(14)11-6-9(12)13/h2-5H,6H2,1H3,(H,11,14)(H,12,13)	4-Methylhippuric acid/3-Methylhippuric acid	192.065356	NA	[(M-H)]-	1	6.62	5	2.83457780468466	0.550291808742677	0.194135369236723	1080010.91923511	88944.3541534946	0.0823550508327145	0.424214563046948	0.02159880208683	-0.0230719999536317	0.0521973088125844	0.612421640768244	0	0.0153355396551839	-0.0304641504929414	0.15772494168622	0.356737295127678	0.00959715115056915	
5-Hydroxyindoleacetic acid	CHEBI:27823	C10H9NO3	OC(=O)Cc1c[nH]c2ccc(O)cc12	InChI=1S/C10H9NO3/c12-7-1-2-9-8(4-7)6(5-11-9)3-10(13)14/h1-2,4-5,11-12H,3H2,(H,13,14)	5-Hydroxyindoleacetic acid	190.050594	NA	[(M-H)]-	1	5.68	5	2.38805966466621	0.276448246773753	0.115762705121689	204154.348838327	14310.2946758549	0.0700954682439189	0.605509936643544	0.138584334597717	0.121144081800028	-0.0648399742872243	0.118540886540845	0	-0.0890971015276441	-0.0772061173321731	0.916357393272986	1.20054318728601	-0.0277861870950301	
5-Sulfosalicylic acid	CHEBI:68555	C7H6O6S	OC(=O)c1cc(ccc1O)S(O)(=O)=O	InChI=1S/C7H6O6S/c8-6-2-1-4(14(11,12)13)3-5(6)7(9)10/h1-3,8H,(H,9,10)(H,11,12,13)	5-Sulfosalicylic acid	216.980834	NA	[(M-H)]-	1	5.28	5	3.03762264549277	0.631560404980069	0.207912726064635	1517724.36704172	95312.609603006	0.0627996833106033	0.302048289680356	0.0345602718125303	-0.0574011236089932	-0.0387046772030613	0.732759392072027	0	-0.00804265835248261	-0.0702440744896043	0.0827181728305663	0.497829995158387	-0.0061491077696368	
6-(2-hydroxyethoxy)-6-oxohexanoic acid	CHEBI:84086	C8H14O5	OCCOC(=O)CCCCC(O)=O	InChI=1S/C8H14O5/c9-5-6-13-8(12)4-2-1-3-7(10)11/h9H,1-6H2,(H,10,11)	6-(2-hydroxyethoxy)-6-oxohexanoic acid	189.07674	NA	[(M-H)]-	1	5.35	4	2.23439132630684	0.240784440855609	0.107762878427206	133687.50541404	18912.8221425933	0.141470379629112	1.31279325212786	0.122546063482105	-0.0115725281910811	-0.00810238774544514	0.852127790467293	0	-0.010477515032899	-0.151539188408904	0.107760501732448	1.06454145756564	-0.00320881814872682	
6-(carboxymethoxy)-hexanoic acid	CHEBI:84088	C8H14O5	OC(=O)CCCCCOCC(O)=O	InChI=1S/C8H14O5/c9-7(10)4-2-1-3-5-13-6-8(11)12/h1-6H2,(H,9,10)(H,11,12)	6-(carboxymethoxy)-hexanoic acid	189.07674	NA	[(M-H)]-	1	5.65	4	2.75183043073542	0.430317714609576	0.156375083945334	630280.64624263	55269.9606472292	0.087691032521333	0.560773687910463	0.0953801656454862	0.15515978030849	0.17768520109562	0.00843239326200961	1	0.119004095320312	-0.0545110920331575	1.22394871108906	1.30208896604283	0.043630573682757	
9-Methylxanthine	CSID 64136	C6H6N4O2	Cn1cnc2c1[nH]c(=O)[nH]c2=O	InChI=1/C6H6N4O2/c1-10-2-7-3-4(10)8-6(12)9-5(3)11/h2H,1H3,(H2,8,9,11,12)	9-Methylxanthine	165.0411	NA	[(M-H)]-	1	4.3	4	4.08445348217315	0.380229975588446	0.0930920078409468	12143021.3650416	517317.926233748	0.0426020765905137	0.457634093179104	0.109351904497216	-0.0622838287676598	-0.0114482504804432	0.852127790467293	0	0.0104785146930997	-0.168761835812832	0.107770783166974	1.11880766182791	-0.00325347171053409	
Acetaminophen glucuronide	CHEBI:32636	C14H17NO8	CC(=O)Nc1ccc(O[C@@H]2O[C@@H]([C@@H](O)[C@H](O)[C@H]2O)C(O)=O)cc1	InChI=1S/C14H17NO8/c1-6(16)15-7-2-4-8(5-3-7)22-14-11(19)9(17)10(18)12(23-14)13(20)21/h2-5,9-12,14,17-19H,1H3,(H,15,16)(H,20,21)/t9-,10-,11+,12-,14+/m0/s1	Acetaminophen glucuronide	326.087035	NA	[(M-H)]-	1	4.12	5	1.42487143851705	1.36437784990813	0.957544528598398	13262282.861068	419223.815959235	0.0316102303314526	0.0330117601713227	0.00832587127517648	0.0193751923165625	-0.653514237428028	0.00726253157469891	1	-0.137934382096446	0.0360319887155241	1.41864537289579	0.266793306642836	-0.0453148733413289	
Acetylphenylalanine	CHEBI:16259	C11H13NO3	CC(=O)N[C@@H](Cc1ccccc1)C(O)=O	InChI=1S/C11H13NO3/c1-8(13)12-10(11(14)15)7-9-5-3-2-4-6-9/h2-6,10H,7H2,1H3,(H,12,13)(H,14,15)/t10-/m0/s1	Acetylphenylalanine	206.08069	NA	[(M-H)]-	1	6.6	5	2.79196962846714	0.389558589397806	0.13952823319632	578436.447937296	76939.707669538	0.133013242757964	0.953307009706134	0.0606628925434877	-0.101324533064464	-0.25591362268495	5.93567195770458e-06	1	-0.193521462038099	-0.0679953688305555	1.99035456210197	0.448748421024477	-0.0691835054253128	
alpha-N-Phenylacetyl-glutamine	CHEBI:17884	C13H16N2O4	NC(=O)CC[C@H](NC(=O)Cc1ccccc1)C(O)=O	InChI=1S/C13H16N2O4/c14-11(16)7-6-10(13(18)19)15-12(17)8-9-4-2-1-3-5-9/h1-5,10H,6-8H2,(H2,14,16)(H,15,17)(H,18,19)/t10-/m0/s1	alpha-N-Phenylacetyl-glutamine	NA	NA		NA	NA	5	4.91049952869732	0.21904620540795	0.044607723537662	61524186.4193269	1903288.75188381	0.0309356183747262	0.693503633930287	0.112776771317151	-0.0785899561668215	-0.110076057350156	0.000116069950998238	1	-0.190356316716911	-0.14182939545022	1.95780126613472	0.997187318060859	-0.0620163889937437	
Aminosalicyluric acid	CSID 8528501	C9H10N2O4	C1=CC(=C(C=C1N)C(=O)NCC(=O)O)O	InChI=1/C9H10N2O4/c10-5-1-2-7(12)6(3-5)9(15)11-4-8(13)14/h1-3,12H,4,10H2,(H,11,15)(H,13,14)	Aminosalicyluric acid	209.055518	NA	[(M-H)]-	1	4.5	4	2.95995955631471	0.509313956602758	0.172067876912777	1120518.60543712	49522.8796477412	0.0441963921057984	0.256854404777726	0.0497870829944505	-0.16903219729106	-0.0916848306237559	0.318634103298065	0	-0.0237232274632011	-0.140450967125386	0.24399171808587	1.0300010913829	-0.0186117538019432	
Aspartic acid	CHEBI:22660	C4H7NO4	NC(CC(O)=O)C(O)=O	InChI=1S/C4H7NO4/c5-2(4(8)9)1-3(6)7/h2H,1,5H2,(H,6,7)(H,8,9)	Aspartic acid	132.02947	NA	[(M-H)]-	1	0.89	5	3.25685465199215	0.215646937613749	0.0662132519428958	1392907.20236198	41183.6856139001	0.0295667116546344	0.446537676175965	0.105941220504509	0.0407754974815714	-0.0294287595239506	0.418385871448933	0	-0.0824827524562922	-0.0981766495977867	0.848329280469103	0.668539366021601	-0.0152013395290034	
Asp-Leu/Ile isomer 1					Asp-Leu/Ile isomer 1	NA	NA		NA	NA	4	2.7447570997737	0.391236718390345	0.142539650748185	782591.318285406	36217.9952610365	0.0462795771110613	0.32467862007618	0.0596824116893218	0.0722221240611723	0.161960079695974	0.00710088033479736	1	0.129702919143273	-0.0602640982488588	1.33398535808878	0.817662244142745	0.0448252315700169	
Asp-Leu/Ile isomer 2					Asp-Leu/Ile isomer 2	NA	NA		NA	NA	4	2.40224714045221	0.375367910302167	0.156256991206786	312142.156500105	16292.8668793421	0.0521969446934882	0.334045499598878	0.0711627153988973	0.0699074850764579	0.122475508963257	0.0406595391651593	1	0.0888791906796216	-0.069379911096447	0.914116195599481	0.758937179823043	0.0343642078646453	
Azelaic acid	CHEBI:48131	C9H16O4	OC(=O)CCCCCCCC(O)=O	InChI=1S/C9H16O4/c10-8(11)6-4-2-1-3-5-7-9(12)13/h1-7H2,(H,10,11)(H,12,13)	Azelaic acid	187.097224	NA	[(M-H)]-	1	7.01	5	3.8633193023002	0.240941263463505	0.0623663861591894	5629390.36609157	177906.304150446	0.0316031208675913	0.50673323907088	0.109107507897333	-0.0766466667250361	-0.0518966741656559	0.227010645583412	0	-0.0636339678360744	-0.164168306996482	0.654470862576712	1.10299158206625	-0.0226435711878668	
Benzoic acid isomer					Benzoic acid isomer	121.02915	NA	[(M-H)]-	1	5.38	4	2.85372765871105	0.492658720987672	0.172636908600519	888819.204732839	25243.5240520236	0.0284011910606851	0.164514015519157	0.0667162988949596	-0.106477172217209	-0.0324448005740883	0.719319348103393	0	-0.016686583319748	-0.133403642098527	0.171620330306396	0.919248201943898	-0.00678697173439967	
Chenodeoxycholic acid isomer					Chenodeoxycholic acid isomer	448.30489	NA	[(M-H)]-	1	8.86	4	1.8972479549482	0.720901350748079	0.379972132197007	138095.312283456	12333.8737445416	0.0893142101682999	0.235054633222398	0.00939838860048065	-0.00525852969749502	0.13247317939722	0.333433911818017	0	0.0480070227979063	-0.0209066539317916	0.49374883711831	0.200376557104666	0.0176070913867418	
Cinnamoylglycine	CHEBI:68616	C11H11NO3	OC(=O)CNC(=O)C=Cc1ccccc1	InChI=1S/C11H11NO3/c13-10(12-8-11(14)15)7-6-9-4-2-1-3-5-9/h1-7H,8H2,(H,12,13)(H,14,15)/b7-6+	Cinnamoylglycine	204.065452	NA	[(M-H)]-	1	7.03	5	4.01603992191922	0.513327087077502	0.127819219195458	11742041.4996239	2134365.54261586	0.181771248439569	1.42209637630167	0.048502639428067	-0.0461698701190474	-0.109696015819436	0.234869990993218	0	-0.0772631114553834	-0.0686448152251937	0.794645641614368	0.537715417082155	-0.0217022855987395	
Citric acid	CHEBI:30769	C6H8O7	OC(=O)CC(O)(CC(O)=O)C(O)=O	InChI=1S/C6H8O7/c7-3(8)1-6(13,5(11)12)2-4(9)10/h13H,1-2H2,(H,7,8)(H,9,10)(H,11,12)	Citric acid	191.019335	NA	[(M-H)]-	1	NA	5	5.42164190405865	0.193069896766846	0.0356109643874327	206142563.530264	8097035.68487872	0.0392788153315556	1.10299779877394	0.126121875298398	-0.0967794608084287	-0.102600103292682	0.000118707676441187	1	-0.176836557638211	-0.162904519918887	1.81875149936771	1.0819059869683	-0.0617670441544561	
Dehydroepiandrosterone 3-glucuronide	CHEBI:68834	C25H36O8	[H][C@@]12CC=C3C[C@H](CC[C@]3(C)[C@@]1([H])CC[C@]1(C)C(=O)CC[C@@]21[H])O[C@@H]1O[C@@H]([C@@H](O)[C@H](O)[C@H]1O)C(O)=O	InChI=1S/C25H36O8/c1-24-9-7-13(32-23-20(29)18(27)19(28)21(33-23)22(30)31)11-12(24)3-4-14-15-5-6-17(26)25(15,2)10-8-16(14)24/h3,13-16,18-21,23,27-29H,4-11H2,1-2H3,(H,30,31)/t13-,14-,15-,16-,18-,19-,20+,21-,23+,24-,25-/m0/s1	Dehydroepiandrosterone 3-glucuronide	463.2329	NA	[(M-H)]-	1	8.2	5	2.35520716579891	0.461467332737549	0.195934922175313	259610.438401221	20073.2808069849	0.0773207769710791	0.394624787213258	0.121142948957521	0.124980243614907	0.166543729582745	0.0344829416798271	1	0.101907905670957	-0.0973045890835651	1.04811560862699	1.34458307913877	0.0362779565593615	
Dehydroepiandrosterone sulfate	CHEBI:16814	C19H28O5S	C1[C@@]2([C@@]([C@@]3(C(C[C@@H](OS(O)(=O)=O)CC3)=C1)C)(CC[C@]4([C@]2(CCC4=O)[H])C)[H])[H]	InChI=1S/C19H28O5S/c1-18-9-7-13(24-25(21,22)23)11-12(18)3-4-14-15-5-6-17(20)19(15,2)10-8-16(14)18/h3,13-16H,4-11H2,1-2H3,(H,21,22,23)/t13-,14-,15-,16-,18-,19-/m0/s1	Dehydroepiandrosterone sulfate	367.156657	NA	[(M-H)]-	1	8.28	5	3.25965877691267	1.13264236727363	0.347472678826338	8453036.74612411	497097.410626003	0.0588069619895989	0.169241973752388	0.0558818295081954	0.0998287402774441	0.524752942764666	0.00741120208861409	1	0.111839801189532	-0.0448944064557945	1.15026445221016	0.621929700763455	0.0437269586733925	
Deoxyhexose	CHEBI:23628				Deoxyhexose	163.060423	NA	[(M-H)]-	1	0.91	5	2.61052507142363	0.417695757810826	0.160004499624682	391142.78682659	31565.3865537357	0.0807004184068719	0.504363431004556	0.0704692975628868	-0.146891501740644	-0.0410819410504435	0.599395367518757	0	-0.00348519693743069	-0.152099633576134	0.0358450042242516	1.0091386876113	-0.0103188778737975	
Dimethylguanosine	CHEBI:25307				Dimethylguanosine	310.114597	NA	[(M-H)]-	1	4.71	4	3.08283713443258	0.267301756154748	0.0867064150646241	991569.91581336	39297.9137318125	0.039632014954364	0.45708284588661	0.166412988714211	0.103116643913199	0.00937372845001061	0.747995179851169	0	-0.00650569649769167	-0.147402311842905	0.0669106287615904	1.35635336822408	0.00562332630982425	
FMNH2	CHEBI:16048	C17H23N4O9P	Cc1cc2Nc3c([nH]c(=O)[nH]c3=O)N(C[C@H](O)[C@H](O)[C@H](O)COP(O)(O)=O)c2cc1C	InChI=1S/C17H23N4O9P/c1-7-3-9-10(4-8(7)2)21(15-13(18-9)16(25)20-17(26)19-15)5-11(22)14(24)12(23)6-30-31(27,28)29/h3-4,11-12,14,18,22-24H,5-6H2,1-2H3,(H2,27,28,29)(H2,19,20,25,26)/t11-,12+,14-/m0/s1	FMNH2	457.113076	NA	[(M-H)]-	1	5.7	4	1.38048128540247	0.461774555250344	0.334502582637849	28822.5725028238	7393.54664809865	0.256519318231372	0.766867975154303	0.0956084679434801	0.170693161530798	0.122934216488437	0.161334901876253	0	0.0624441036434444	-0.0330991150479003	0.642233193435826	1.3053836740985	0.0255583851003347	
Fumaric acid	CHEBI:18012	C4H4O4	OC(=O)C=CC(O)=O	InChI=1S/C4H4O4/c5-3(6)1-2-4(7)8/h1-2H,(H,5,6)(H,7,8)/b2-1+	Fumaric acid	115.00314	NA	[(M-H)]-	1	1.1	5	2.5403748292767	0.407490672878546	0.160405727604602	363136.073013292	22224.118569824	0.0612005257021394	0.381535788129697	0.0343346114030088	-0.221112337390747	-0.191382167372949	0.00726253157469891	1	-0.0813581098135511	-0.134516932586087	0.836762410360021	1.15093290725672	-0.0451113608421044	
Gentisic acid	CHEBI:17189	C7H6O4	OC(=O)c1cc(O)ccc1O	InChI=1S/C7H6O4/c8-4-1-2-6(9)5(3-4)7(10)11/h1-3,8-9H,(H,10,11)	Gentisic acid	NA	NA		NA	NA	5	3.08959690552932	0.527635206478935	0.170778008462738	1366275.11986724	62088.3617804195	0.0454435280841917	0.266097072411446	0.0472552963717713	-0.00403938944031597	-0.0428146237221831	0.668149364778123	0	-0.0388716858164663	-0.0437914973997197	0.399792541801729	0.377168164904878	-0.00824469140806635	
Gluconic acid and/or isomers					Gluconic acid and/or isomers	195.049814	NA	[(M-H)]-	1	0.88	4	3.75592629822295	0.327537838083609	0.0872056084376781	4177387.28233723	71110.0766535704	0.0170226200846249	0.195200978349806	0.138012416776659	-0.0723584767590373	-0.137156699584347	0.000255749950706702	1	-0.14913519693464	-0.175127713833704	1.5338449620146	1.15787087566707	-0.0584313036211549	
Glucuronic acid and/or isomers					Glucuronic acid and/or isomers	193.034589	NA	[(M-H)]-	1	0.85	4	2.67723377980982	0.290128227538236	0.108368656381904	331806.202391759	11377.5957408161	0.0342898826447575	0.316418822467596	0.100816827037668	-0.154197368979395	-0.123559811109717	0.00134716012979938	1	-0.127075963162796	-0.183112659809563	1.30696730146023	1.37778094452082	-0.0524377551936042	
Glu-Val					Glu-Val	245.112506	NA	[(M-H)]-	1	4.4	4	3.08633427223833	0.237677097642184	0.0770095124757216	1040927.28680715	32545.6747499117	0.0312660405413517	0.406002317586529	0.105346248534805	0.0913777755165228	0.090756626942778	0.0102712905362638	1	0.0935057943190201	-0.0954042527106684	0.961700487097348	1.14179449020378	0.0421952692499675	
Glyceric acid	CHEBI:33508	C3H6O4	OCC(O)C(O)=O	InChI=1S/C3H6O4/c4-1-2(5)3(6)7/h2,4-5H,1H2,(H,6,7)	Glyceric acid	105.018901	NA	[(M-H)]-	1	0.92	5	2.9214987592254	0.242174454317194	0.0828939096935997	646166.879585113	24995.1780580671	0.0386822334102234	0.466647472090583	0.0574485786503335	-0.060930311088274	-0.137552155292429	0.00107759818806449	1	-0.131811947715524	-0.0796214185354996	1.35567656792243	0.66306501712039	-0.0536089929969295	
Glycocholic acid isomer 2					Glycocholic acid isomer 2	464.30083	NA	[(M-H)]-	1	7.75	4	1.53469317584667	0.632534464637547	0.412156953971327	52836.4971625722	8012.61007996668	0.151649153714955	0.367940301027906	0.0759636578729182	0.0733347266591492	0.0454658542930411	0.719319348103393	0	-0.00265268695779417	-0.0370258553947209	0.027282697912	0.981717440579086	0.00685944208943919	
Glycocholic acid isomer 3					Glycocholic acid isomer 3	464.30083	NA	[(M-H)]-	1	7.12	4	1.33292829128542	0.672912288329729	0.504837576581708	41357.4726528154	5485.39258557351	0.132633650794425	0.262725393170011	0.0572860988172424	0.0375633276445549	-0.0648246175204787	0.637437472011622	0	-0.0333605968510662	-0.0310249373831229	0.34311138122702	0.639854875430559	-0.0091527349182061	
Heptylmalonic acid	CHEBI:70747	C10H18O4	CCCCCCCC(C(O)=O)C(O)=O	InChI=1S/C10H18O4/c1-2-3-4-5-6-7-8(9(11)12)10(13)14/h8H,2-7H2,1H3,(H,11,12)(H,13,14)	Heptylmalonic acid	201.112663	NA	[(M-H)]-	1	6.05	4	3.64765683129597	0.32342697658893	0.0886670516299693	3776919.87450886	171763.035065493	0.0454770132204164	0.512896418505082	0.134554367822982	0.0039000862379577	-0.0593658707084641	0.179830914900848	0	-0.0540606265738668	-0.146410111083206	0.556009724183479	1.08329125974132	-0.0233916470216005	
Hexanoylglycine	CHEBI:64390	C8H15NO3	CCCCCC(=O)NCC(O)=O	InChI=1S/C8H15NO3/c1-2-3-4-5-7(10)9-6-8(11)12/h2-6H2,1H3,(H,9,10)(H,11,12)	Hexanoylglycine	172.097037	NA	[(M-H)]-	1	6.45	5	2.92680934466613	0.401162208865162	0.137064687727695	958792.554799079	149374.432283955	0.155794318110092	1.13664810895427	0.115401176548925	0.0211738269801105	-0.092660708256584	0.150923003654401	0	-0.068289518154882	-0.0958657975506754	0.702352868626821	1.0983656494698	-0.0254023688170665	
Hippuric acid	CHEBI:18089	C9H9NO3	OC(=O)CNC(=O)c1ccccc1	InChI=1S/C9H9NO3/c11-8(12)6-10-9(13)7-4-2-1-3-5-7/h1-5H,6H2,(H,10,13)(H,11,12)	Hippuric acid	178.050869	NA	[(M-H)]-	1	5.87	5	5.24104749484444	0.25931947719103	0.0494785589037533	143653839.17996	4637045.84603256	0.0322793033064962	0.652389722370179	0.0886560910104154	-0.155905465855657	-0.0933545787600245	0.0228208901426669	1	-0.103414141404857	-0.179029129524516	1.06360713671383	1.47871413570803	-0.0384296176619958	
Hydroxybenzyl alcohol isomer					Hydroxybenzyl alcohol isomer	123.044469	NA	[(M-H)]-	1	6.19	4	2.76139927938191	0.379909722922692	0.137578699958134	707379.93142354	24187.6209553503	0.0341932529901927	0.248535950700202	0.0878198681623585	-0.083364753941617	-0.141174164407496	0.0133381246318787	1	-0.115420446106782	-0.11357117126354	1.18709113216213	0.754575452095522	-0.0403402036332254	
Hydroxyphenyllactic acid	CSID 9010	C9H10O4	c1cc(ccc1CC(C(=O)O)O)O	InChI=1/C9H10O4/c10-7-3-1-6(2-4-7)5-8(11)9(12)13/h1-4,8,10-11H,5H2,(H,12,13)	Hydroxyphenyllactic acid	181.049264	NA	[(M-H)]-	1	5.22	5	4.12879201952837	0.426554601937911	0.103312203647069	15517843.8965243	531872.588401227	0.0342749026184208	0.331760444637394	0.0714351691689764	-0.122033697350169	-0.0472585277999586	0.52731681494926	0	-0.0278978047264773	-0.145084317743044	0.286926950247216	1.01131111323564	-0.0120549419780047	
Hydroxysuberic acid isomer 1					Hydroxysuberic acid isomer 1	189.075793	NA	[(M-H)]-	1	4.9	4	2.49716497107902	0.281103398638374	0.11256901401949	250051.50848286	29736.772496766	0.118922587898742	1.05644158771926	0.074715556750268	0.054359436324861	0.02955704919904	0.591622297507966	0	0.0359275108153885	-0.0710155774786755	0.369511909962206	0.69297005482541	0.0106064363300337	